########### generatePositions.py 2025/10/01 10:39:44 ###########
8000 atoms

1 atom types

0.0 54.3729 xlo xhi
0.0 54.3729 ylo yhi
0.0 54.3729 zlo zhi

Masses

1 28.0855
Atoms

1 1 1 0.0 0.0 0.0
2 1 1 2.718645 2.718645 0.0
3 1 1 2.718645 0.0 2.718645
4 1 1 0.0 2.718645 2.718645
5 1 1 1.3593225 1.3593225 1.3593225
6 1 1 4.0779675 4.0779675 1.3593225
7 1 1 4.0779675 1.3593225 4.0779675
8 1 1 1.3593225 4.0779675 4.0779675
9 1 1 0.0 0.0 5.43729
10 1 1 2.718645 2.718645 5.43729
11 1 1 2.718645 0.0 8.155935
12 1 1 0.0 2.718645 8.155935
13 1 1 1.3593225 1.3593225 6.7966125
14 1 1 4.0779675 4.0779675 6.7966125
15 1 1 4.0779675 1.3593225 9.5152575
16 1 1 1.3593225 4.0779675 9.5152575
17 1 1 0.0 0.0 10.87458
18 1 1 2.718645 2.718645 10.87458
19 1 1 2.718645 0.0 13.593225
20 1 1 0.0 2.718645 13.593225
21 1 1 1.3593225 1.3593225 12.2339025
22 1 1 4.0779675 4.0779675 12.2339025
23 1 1 4.0779675 1.3593225 14.9525475
24 1 1 1.3593225 4.0779675 14.9525475
25 1 1 0.0 0.0 16.31187
26 1 1 2.718645 2.718645 16.31187
27 1 1 2.718645 0.0 19.030514999999998
28 1 1 0.0 2.718645 19.030514999999998
29 1 1 1.3593225 1.3593225 17.6711925
30 1 1 4.0779675 4.0779675 17.6711925
31 1 1 4.0779675 1.3593225 20.3898375
32 1 1 1.3593225 4.0779675 20.3898375
33 1 1 0.0 0.0 21.74916
34 1 1 2.718645 2.718645 21.74916
35 1 1 2.718645 0.0 24.467805
36 1 1 0.0 2.718645 24.467805
37 1 1 1.3593225 1.3593225 23.1084825
38 1 1 4.0779675 4.0779675 23.1084825
39 1 1 4.0779675 1.3593225 25.8271275
40 1 1 1.3593225 4.0779675 25.8271275
41 1 1 0.0 0.0 27.18645
42 1 1 2.718645 2.718645 27.18645
43 1 1 2.718645 0.0 29.905095
44 1 1 0.0 2.718645 29.905095
45 1 1 1.3593225 1.3593225 28.5457725
46 1 1 4.0779675 4.0779675 28.5457725
47 1 1 4.0779675 1.3593225 31.2644175
48 1 1 1.3593225 4.0779675 31.2644175
49 1 1 0.0 0.0 32.62374
50 1 1 2.718645 2.718645 32.62374
51 1 1 2.718645 0.0 35.342385
52 1 1 0.0 2.718645 35.342385
53 1 1 1.3593225 1.3593225 33.983062499999996
54 1 1 4.0779675 4.0779675 33.983062499999996
55 1 1 4.0779675 1.3593225 36.7017075
56 1 1 1.3593225 4.0779675 36.7017075
57 1 1 0.0 0.0 38.06103
58 1 1 2.718645 2.718645 38.06103
59 1 1 2.718645 0.0 40.779675000000005
60 1 1 0.0 2.718645 40.779675000000005
61 1 1 1.3593225 1.3593225 39.4203525
62 1 1 4.0779675 4.0779675 39.4203525
63 1 1 4.0779675 1.3593225 42.1389975
64 1 1 1.3593225 4.0779675 42.1389975
65 1 1 0.0 0.0 43.49832
66 1 1 2.718645 2.718645 43.49832
67 1 1 2.718645 0.0 46.216965
68 1 1 0.0 2.718645 46.216965
69 1 1 1.3593225 1.3593225 44.8576425
70 1 1 4.0779675 4.0779675 44.8576425
71 1 1 4.0779675 1.3593225 47.5762875
72 1 1 1.3593225 4.0779675 47.5762875
73 1 1 0.0 0.0 48.93561
74 1 1 2.718645 2.718645 48.93561
75 1 1 2.718645 0.0 51.654255
76 1 1 0.0 2.718645 51.654255
77 1 1 1.3593225 1.3593225 50.294932499999994
78 1 1 4.0779675 4.0779675 50.294932499999994
79 1 1 4.0779675 1.3593225 53.0135775
80 1 1 1.3593225 4.0779675 53.0135775
81 1 1 0.0 5.43729 0.0
82 1 1 2.718645 8.155935 0.0
83 1 1 2.718645 5.43729 2.718645
84 1 1 0.0 8.155935 2.718645
85 1 1 1.3593225 6.7966125 1.3593225
86 1 1 4.0779675 9.5152575 1.3593225
87 1 1 4.0779675 6.7966125 4.0779675
88 1 1 1.3593225 9.5152575 4.0779675
89 1 1 0.0 5.43729 5.43729
90 1 1 2.718645 8.155935 5.43729
91 1 1 2.718645 5.43729 8.155935
92 1 1 0.0 8.155935 8.155935
93 1 1 1.3593225 6.7966125 6.7966125
94 1 1 4.0779675 9.5152575 6.7966125
95 1 1 4.0779675 6.7966125 9.5152575
96 1 1 1.3593225 9.5152575 9.5152575
97 1 1 0.0 5.43729 10.87458
98 1 1 2.718645 8.155935 10.87458
99 1 1 2.718645 5.43729 13.593225
100 1 1 0.0 8.155935 13.593225
101 1 1 1.3593225 6.7966125 12.2339025
102 1 1 4.0779675 9.5152575 12.2339025
103 1 1 4.0779675 6.7966125 14.9525475
104 1 1 1.3593225 9.5152575 14.9525475
105 1 1 0.0 5.43729 16.31187
106 1 1 2.718645 8.155935 16.31187
107 1 1 2.718645 5.43729 19.030514999999998
108 1 1 0.0 8.155935 19.030514999999998
109 1 1 1.3593225 6.7966125 17.6711925
110 1 1 4.0779675 9.5152575 17.6711925
111 1 1 4.0779675 6.7966125 20.3898375
112 1 1 1.3593225 9.5152575 20.3898375
113 1 1 0.0 5.43729 21.74916
114 1 1 2.718645 8.155935 21.74916
115 1 1 2.718645 5.43729 24.467805
116 1 1 0.0 8.155935 24.467805
117 1 1 1.3593225 6.7966125 23.1084825
118 1 1 4.0779675 9.5152575 23.1084825
119 1 1 4.0779675 6.7966125 25.8271275
120 1 1 1.3593225 9.5152575 25.8271275
121 1 1 0.0 5.43729 27.18645
122 1 1 2.718645 8.155935 27.18645
123 1 1 2.718645 5.43729 29.905095
124 1 1 0.0 8.155935 29.905095
125 1 1 1.3593225 6.7966125 28.5457725
126 1 1 4.0779675 9.5152575 28.5457725
127 1 1 4.0779675 6.7966125 31.2644175
128 1 1 1.3593225 9.5152575 31.2644175
129 1 1 0.0 5.43729 32.62374
130 1 1 2.718645 8.155935 32.62374
131 1 1 2.718645 5.43729 35.342385
132 1 1 0.0 8.155935 35.342385
133 1 1 1.3593225 6.7966125 33.983062499999996
134 1 1 4.0779675 9.5152575 33.983062499999996
135 1 1 4.0779675 6.7966125 36.7017075
136 1 1 1.3593225 9.5152575 36.7017075
137 1 1 0.0 5.43729 38.06103
138 1 1 2.718645 8.155935 38.06103
139 1 1 2.718645 5.43729 40.779675000000005
140 1 1 0.0 8.155935 40.779675000000005
141 1 1 1.3593225 6.7966125 39.4203525
142 1 1 4.0779675 9.5152575 39.4203525
143 1 1 4.0779675 6.7966125 42.1389975
144 1 1 1.3593225 9.5152575 42.1389975
145 1 1 0.0 5.43729 43.49832
146 1 1 2.718645 8.155935 43.49832
147 1 1 2.718645 5.43729 46.216965
148 1 1 0.0 8.155935 46.216965
149 1 1 1.3593225 6.7966125 44.8576425
150 1 1 4.0779675 9.5152575 44.8576425
151 1 1 4.0779675 6.7966125 47.5762875
152 1 1 1.3593225 9.5152575 47.5762875
153 1 1 0.0 5.43729 48.93561
154 1 1 2.718645 8.155935 48.93561
155 1 1 2.718645 5.43729 51.654255
156 1 1 0.0 8.155935 51.654255
157 1 1 1.3593225 6.7966125 50.294932499999994
158 1 1 4.0779675 9.5152575 50.294932499999994
159 1 1 4.0779675 6.7966125 53.0135775
160 1 1 1.3593225 9.5152575 53.0135775
161 1 1 0.0 10.87458 0.0
162 1 1 2.718645 13.593225 0.0
163 1 1 2.718645 10.87458 2.718645
164 1 1 0.0 13.593225 2.718645
165 1 1 1.3593225 12.2339025 1.3593225
166 1 1 4.0779675 14.9525475 1.3593225
167 1 1 4.0779675 12.2339025 4.0779675
168 1 1 1.3593225 14.9525475 4.0779675
169 1 1 0.0 10.87458 5.43729
170 1 1 2.718645 13.593225 5.43729
171 1 1 2.718645 10.87458 8.155935
172 1 1 0.0 13.593225 8.155935
173 1 1 1.3593225 12.2339025 6.7966125
174 1 1 4.0779675 14.9525475 6.7966125
175 1 1 4.0779675 12.2339025 9.5152575
176 1 1 1.3593225 14.9525475 9.5152575
177 1 1 0.0 10.87458 10.87458
178 1 1 2.718645 13.593225 10.87458
179 1 1 2.718645 10.87458 13.593225
180 1 1 0.0 13.593225 13.593225
181 1 1 1.3593225 12.2339025 12.2339025
182 1 1 4.0779675 14.9525475 12.2339025
183 1 1 4.0779675 12.2339025 14.9525475
184 1 1 1.3593225 14.9525475 14.9525475
185 1 1 0.0 10.87458 16.31187
186 1 1 2.718645 13.593225 16.31187
187 1 1 2.718645 10.87458 19.030514999999998
188 1 1 0.0 13.593225 19.030514999999998
189 1 1 1.3593225 12.2339025 17.6711925
190 1 1 4.0779675 14.9525475 17.6711925
191 1 1 4.0779675 12.2339025 20.3898375
192 1 1 1.3593225 14.9525475 20.3898375
193 1 1 0.0 10.87458 21.74916
194 1 1 2.718645 13.593225 21.74916
195 1 1 2.718645 10.87458 24.467805
196 1 1 0.0 13.593225 24.467805
197 1 1 1.3593225 12.2339025 23.1084825
198 1 1 4.0779675 14.9525475 23.1084825
199 1 1 4.0779675 12.2339025 25.8271275
200 1 1 1.3593225 14.9525475 25.8271275
201 1 1 0.0 10.87458 27.18645
202 1 1 2.718645 13.593225 27.18645
203 1 1 2.718645 10.87458 29.905095
204 1 1 0.0 13.593225 29.905095
205 1 1 1.3593225 12.2339025 28.5457725
206 1 1 4.0779675 14.9525475 28.5457725
207 1 1 4.0779675 12.2339025 31.2644175
208 1 1 1.3593225 14.9525475 31.2644175
209 1 1 0.0 10.87458 32.62374
210 1 1 2.718645 13.593225 32.62374
211 1 1 2.718645 10.87458 35.342385
212 1 1 0.0 13.593225 35.342385
213 1 1 1.3593225 12.2339025 33.983062499999996
214 1 1 4.0779675 14.9525475 33.983062499999996
215 1 1 4.0779675 12.2339025 36.7017075
216 1 1 1.3593225 14.9525475 36.7017075
217 1 1 0.0 10.87458 38.06103
218 1 1 2.718645 13.593225 38.06103
219 1 1 2.718645 10.87458 40.779675000000005
220 1 1 0.0 13.593225 40.779675000000005
221 1 1 1.3593225 12.2339025 39.4203525
222 1 1 4.0779675 14.9525475 39.4203525
223 1 1 4.0779675 12.2339025 42.1389975
224 1 1 1.3593225 14.9525475 42.1389975
225 1 1 0.0 10.87458 43.49832
226 1 1 2.718645 13.593225 43.49832
227 1 1 2.718645 10.87458 46.216965
228 1 1 0.0 13.593225 46.216965
229 1 1 1.3593225 12.2339025 44.8576425
230 1 1 4.0779675 14.9525475 44.8576425
231 1 1 4.0779675 12.2339025 47.5762875
232 1 1 1.3593225 14.9525475 47.5762875
233 1 1 0.0 10.87458 48.93561
234 1 1 2.718645 13.593225 48.93561
235 1 1 2.718645 10.87458 51.654255
236 1 1 0.0 13.593225 51.654255
237 1 1 1.3593225 12.2339025 50.294932499999994
238 1 1 4.0779675 14.9525475 50.294932499999994
239 1 1 4.0779675 12.2339025 53.0135775
240 1 1 1.3593225 14.9525475 53.0135775
241 1 1 0.0 16.31187 0.0
242 1 1 2.718645 19.030514999999998 0.0
243 1 1 2.718645 16.31187 2.718645
244 1 1 0.0 19.030514999999998 2.718645
245 1 1 1.3593225 17.6711925 1.3593225
246 1 1 4.0779675 20.3898375 1.3593225
247 1 1 4.0779675 17.6711925 4.0779675
248 1 1 1.3593225 20.3898375 4.0779675
249 1 1 0.0 16.31187 5.43729
250 1 1 2.718645 19.030514999999998 5.43729
251 1 1 2.718645 16.31187 8.155935
252 1 1 0.0 19.030514999999998 8.155935
253 1 1 1.3593225 17.6711925 6.7966125
254 1 1 4.0779675 20.3898375 6.7966125
255 1 1 4.0779675 17.6711925 9.5152575
256 1 1 1.3593225 20.3898375 9.5152575
257 1 1 0.0 16.31187 10.87458
258 1 1 2.718645 19.030514999999998 10.87458
259 1 1 2.718645 16.31187 13.593225
260 1 1 0.0 19.030514999999998 13.593225
261 1 1 1.3593225 17.6711925 12.2339025
262 1 1 4.0779675 20.3898375 12.2339025
263 1 1 4.0779675 17.6711925 14.9525475
264 1 1 1.3593225 20.3898375 14.9525475
265 1 1 0.0 16.31187 16.31187
266 1 1 2.718645 19.030514999999998 16.31187
267 1 1 2.718645 16.31187 19.030514999999998
268 1 1 0.0 19.030514999999998 19.030514999999998
269 1 1 1.3593225 17.6711925 17.6711925
270 1 1 4.0779675 20.3898375 17.6711925
271 1 1 4.0779675 17.6711925 20.3898375
272 1 1 1.3593225 20.3898375 20.3898375
273 1 1 0.0 16.31187 21.74916
274 1 1 2.718645 19.030514999999998 21.74916
275 1 1 2.718645 16.31187 24.467805
276 1 1 0.0 19.030514999999998 24.467805
277 1 1 1.3593225 17.6711925 23.1084825
278 1 1 4.0779675 20.3898375 23.1084825
279 1 1 4.0779675 17.6711925 25.8271275
280 1 1 1.3593225 20.3898375 25.8271275
281 1 1 0.0 16.31187 27.18645
282 1 1 2.718645 19.030514999999998 27.18645
283 1 1 2.718645 16.31187 29.905095
284 1 1 0.0 19.030514999999998 29.905095
285 1 1 1.3593225 17.6711925 28.5457725
286 1 1 4.0779675 20.3898375 28.5457725
287 1 1 4.0779675 17.6711925 31.2644175
288 1 1 1.3593225 20.3898375 31.2644175
289 1 1 0.0 16.31187 32.62374
290 1 1 2.718645 19.030514999999998 32.62374
291 1 1 2.718645 16.31187 35.342385
292 1 1 0.0 19.030514999999998 35.342385
293 1 1 1.3593225 17.6711925 33.983062499999996
294 1 1 4.0779675 20.3898375 33.983062499999996
295 1 1 4.0779675 17.6711925 36.7017075
296 1 1 1.3593225 20.3898375 36.7017075
297 1 1 0.0 16.31187 38.06103
298 1 1 2.718645 19.030514999999998 38.06103
299 1 1 2.718645 16.31187 40.779675000000005
300 1 1 0.0 19.030514999999998 40.779675000000005
301 1 1 1.3593225 17.6711925 39.4203525
302 1 1 4.0779675 20.3898375 39.4203525
303 1 1 4.0779675 17.6711925 42.1389975
304 1 1 1.3593225 20.3898375 42.1389975
305 1 1 0.0 16.31187 43.49832
306 1 1 2.718645 19.030514999999998 43.49832
307 1 1 2.718645 16.31187 46.216965
308 1 1 0.0 19.030514999999998 46.216965
309 1 1 1.3593225 17.6711925 44.8576425
310 1 1 4.0779675 20.3898375 44.8576425
311 1 1 4.0779675 17.6711925 47.5762875
312 1 1 1.3593225 20.3898375 47.5762875
313 1 1 0.0 16.31187 48.93561
314 1 1 2.718645 19.030514999999998 48.93561
315 1 1 2.718645 16.31187 51.654255
316 1 1 0.0 19.030514999999998 51.654255
317 1 1 1.3593225 17.6711925 50.294932499999994
318 1 1 4.0779675 20.3898375 50.294932499999994
319 1 1 4.0779675 17.6711925 53.0135775
320 1 1 1.3593225 20.3898375 53.0135775
321 1 1 0.0 21.74916 0.0
322 1 1 2.718645 24.467805 0.0
323 1 1 2.718645 21.74916 2.718645
324 1 1 0.0 24.467805 2.718645
325 1 1 1.3593225 23.1084825 1.3593225
326 1 1 4.0779675 25.8271275 1.3593225
327 1 1 4.0779675 23.1084825 4.0779675
328 1 1 1.3593225 25.8271275 4.0779675
329 1 1 0.0 21.74916 5.43729
330 1 1 2.718645 24.467805 5.43729
331 1 1 2.718645 21.74916 8.155935
332 1 1 0.0 24.467805 8.155935
333 1 1 1.3593225 23.1084825 6.7966125
334 1 1 4.0779675 25.8271275 6.7966125
335 1 1 4.0779675 23.1084825 9.5152575
336 1 1 1.3593225 25.8271275 9.5152575
337 1 1 0.0 21.74916 10.87458
338 1 1 2.718645 24.467805 10.87458
339 1 1 2.718645 21.74916 13.593225
340 1 1 0.0 24.467805 13.593225
341 1 1 1.3593225 23.1084825 12.2339025
342 1 1 4.0779675 25.8271275 12.2339025
343 1 1 4.0779675 23.1084825 14.9525475
344 1 1 1.3593225 25.8271275 14.9525475
345 1 1 0.0 21.74916 16.31187
346 1 1 2.718645 24.467805 16.31187
347 1 1 2.718645 21.74916 19.030514999999998
348 1 1 0.0 24.467805 19.030514999999998
349 1 1 1.3593225 23.1084825 17.6711925
350 1 1 4.0779675 25.8271275 17.6711925
351 1 1 4.0779675 23.1084825 20.3898375
352 1 1 1.3593225 25.8271275 20.3898375
353 1 1 0.0 21.74916 21.74916
354 1 1 2.718645 24.467805 21.74916
355 1 1 2.718645 21.74916 24.467805
356 1 1 0.0 24.467805 24.467805
357 1 1 1.3593225 23.1084825 23.1084825
358 1 1 4.0779675 25.8271275 23.1084825
359 1 1 4.0779675 23.1084825 25.8271275
360 1 1 1.3593225 25.8271275 25.8271275
361 1 1 0.0 21.74916 27.18645
362 1 1 2.718645 24.467805 27.18645
363 1 1 2.718645 21.74916 29.905095
364 1 1 0.0 24.467805 29.905095
365 1 1 1.3593225 23.1084825 28.5457725
366 1 1 4.0779675 25.8271275 28.5457725
367 1 1 4.0779675 23.1084825 31.2644175
368 1 1 1.3593225 25.8271275 31.2644175
369 1 1 0.0 21.74916 32.62374
370 1 1 2.718645 24.467805 32.62374
371 1 1 2.718645 21.74916 35.342385
372 1 1 0.0 24.467805 35.342385
373 1 1 1.3593225 23.1084825 33.983062499999996
374 1 1 4.0779675 25.8271275 33.983062499999996
375 1 1 4.0779675 23.1084825 36.7017075
376 1 1 1.3593225 25.8271275 36.7017075
377 1 1 0.0 21.74916 38.06103
378 1 1 2.718645 24.467805 38.06103
379 1 1 2.718645 21.74916 40.779675000000005
380 1 1 0.0 24.467805 40.779675000000005
381 1 1 1.3593225 23.1084825 39.4203525
382 1 1 4.0779675 25.8271275 39.4203525
383 1 1 4.0779675 23.1084825 42.1389975
384 1 1 1.3593225 25.8271275 42.1389975
385 1 1 0.0 21.74916 43.49832
386 1 1 2.718645 24.467805 43.49832
387 1 1 2.718645 21.74916 46.216965
388 1 1 0.0 24.467805 46.216965
389 1 1 1.3593225 23.1084825 44.8576425
390 1 1 4.0779675 25.8271275 44.8576425
391 1 1 4.0779675 23.1084825 47.5762875
392 1 1 1.3593225 25.8271275 47.5762875
393 1 1 0.0 21.74916 48.93561
394 1 1 2.718645 24.467805 48.93561
395 1 1 2.718645 21.74916 51.654255
396 1 1 0.0 24.467805 51.654255
397 1 1 1.3593225 23.1084825 50.294932499999994
398 1 1 4.0779675 25.8271275 50.294932499999994
399 1 1 4.0779675 23.1084825 53.0135775
400 1 1 1.3593225 25.8271275 53.0135775
401 1 1 0.0 27.18645 0.0
402 1 1 2.718645 29.905095 0.0
403 1 1 2.718645 27.18645 2.718645
404 1 1 0.0 29.905095 2.718645
405 1 1 1.3593225 28.5457725 1.3593225
406 1 1 4.0779675 31.2644175 1.3593225
407 1 1 4.0779675 28.5457725 4.0779675
408 1 1 1.3593225 31.2644175 4.0779675
409 1 1 0.0 27.18645 5.43729
410 1 1 2.718645 29.905095 5.43729
411 1 1 2.718645 27.18645 8.155935
412 1 1 0.0 29.905095 8.155935
413 1 1 1.3593225 28.5457725 6.7966125
414 1 1 4.0779675 31.2644175 6.7966125
415 1 1 4.0779675 28.5457725 9.5152575
416 1 1 1.3593225 31.2644175 9.5152575
417 1 1 0.0 27.18645 10.87458
418 1 1 2.718645 29.905095 10.87458
419 1 1 2.718645 27.18645 13.593225
420 1 1 0.0 29.905095 13.593225
421 1 1 1.3593225 28.5457725 12.2339025
422 1 1 4.0779675 31.2644175 12.2339025
423 1 1 4.0779675 28.5457725 14.9525475
424 1 1 1.3593225 31.2644175 14.9525475
425 1 1 0.0 27.18645 16.31187
426 1 1 2.718645 29.905095 16.31187
427 1 1 2.718645 27.18645 19.030514999999998
428 1 1 0.0 29.905095 19.030514999999998
429 1 1 1.3593225 28.5457725 17.6711925
430 1 1 4.0779675 31.2644175 17.6711925
431 1 1 4.0779675 28.5457725 20.3898375
432 1 1 1.3593225 31.2644175 20.3898375
433 1 1 0.0 27.18645 21.74916
434 1 1 2.718645 29.905095 21.74916
435 1 1 2.718645 27.18645 24.467805
436 1 1 0.0 29.905095 24.467805
437 1 1 1.3593225 28.5457725 23.1084825
438 1 1 4.0779675 31.2644175 23.1084825
439 1 1 4.0779675 28.5457725 25.8271275
440 1 1 1.3593225 31.2644175 25.8271275
441 1 1 0.0 27.18645 27.18645
442 1 1 2.718645 29.905095 27.18645
443 1 1 2.718645 27.18645 29.905095
444 1 1 0.0 29.905095 29.905095
445 1 1 1.3593225 28.5457725 28.5457725
446 1 1 4.0779675 31.2644175 28.5457725
447 1 1 4.0779675 28.5457725 31.2644175
448 1 1 1.3593225 31.2644175 31.2644175
449 1 1 0.0 27.18645 32.62374
450 1 1 2.718645 29.905095 32.62374
451 1 1 2.718645 27.18645 35.342385
452 1 1 0.0 29.905095 35.342385
453 1 1 1.3593225 28.5457725 33.983062499999996
454 1 1 4.0779675 31.2644175 33.983062499999996
455 1 1 4.0779675 28.5457725 36.7017075
456 1 1 1.3593225 31.2644175 36.7017075
457 1 1 0.0 27.18645 38.06103
458 1 1 2.718645 29.905095 38.06103
459 1 1 2.718645 27.18645 40.779675000000005
460 1 1 0.0 29.905095 40.779675000000005
461 1 1 1.3593225 28.5457725 39.4203525
462 1 1 4.0779675 31.2644175 39.4203525
463 1 1 4.0779675 28.5457725 42.1389975
464 1 1 1.3593225 31.2644175 42.1389975
465 1 1 0.0 27.18645 43.49832
466 1 1 2.718645 29.905095 43.49832
467 1 1 2.718645 27.18645 46.216965
468 1 1 0.0 29.905095 46.216965
469 1 1 1.3593225 28.5457725 44.8576425
470 1 1 4.0779675 31.2644175 44.8576425
471 1 1 4.0779675 28.5457725 47.5762875
472 1 1 1.3593225 31.2644175 47.5762875
473 1 1 0.0 27.18645 48.93561
474 1 1 2.718645 29.905095 48.93561
475 1 1 2.718645 27.18645 51.654255
476 1 1 0.0 29.905095 51.654255
477 1 1 1.3593225 28.5457725 50.294932499999994
478 1 1 4.0779675 31.2644175 50.294932499999994
479 1 1 4.0779675 28.5457725 53.0135775
480 1 1 1.3593225 31.2644175 53.0135775
481 1 1 0.0 32.62374 0.0
482 1 1 2.718645 35.342385 0.0
483 1 1 2.718645 32.62374 2.718645
484 1 1 0.0 35.342385 2.718645
485 1 1 1.3593225 33.983062499999996 1.3593225
486 1 1 4.0779675 36.7017075 1.3593225
487 1 1 4.0779675 33.983062499999996 4.0779675
488 1 1 1.3593225 36.7017075 4.0779675
489 1 1 0.0 32.62374 5.43729
490 1 1 2.718645 35.342385 5.43729
491 1 1 2.718645 32.62374 8.155935
492 1 1 0.0 35.342385 8.155935
493 1 1 1.3593225 33.983062499999996 6.7966125
494 1 1 4.0779675 36.7017075 6.7966125
495 1 1 4.0779675 33.983062499999996 9.5152575
496 1 1 1.3593225 36.7017075 9.5152575
497 1 1 0.0 32.62374 10.87458
498 1 1 2.718645 35.342385 10.87458
499 1 1 2.718645 32.62374 13.593225
500 1 1 0.0 35.342385 13.593225
501 1 1 1.3593225 33.983062499999996 12.2339025
502 1 1 4.0779675 36.7017075 12.2339025
503 1 1 4.0779675 33.983062499999996 14.9525475
504 1 1 1.3593225 36.7017075 14.9525475
505 1 1 0.0 32.62374 16.31187
506 1 1 2.718645 35.342385 16.31187
507 1 1 2.718645 32.62374 19.030514999999998
508 1 1 0.0 35.342385 19.030514999999998
509 1 1 1.3593225 33.983062499999996 17.6711925
510 1 1 4.0779675 36.7017075 17.6711925
511 1 1 4.0779675 33.983062499999996 20.3898375
512 1 1 1.3593225 36.7017075 20.3898375
513 1 1 0.0 32.62374 21.74916
514 1 1 2.718645 35.342385 21.74916
515 1 1 2.718645 32.62374 24.467805
516 1 1 0.0 35.342385 24.467805
517 1 1 1.3593225 33.983062499999996 23.1084825
518 1 1 4.0779675 36.7017075 23.1084825
519 1 1 4.0779675 33.983062499999996 25.8271275
520 1 1 1.3593225 36.7017075 25.8271275
521 1 1 0.0 32.62374 27.18645
522 1 1 2.718645 35.342385 27.18645
523 1 1 2.718645 32.62374 29.905095
524 1 1 0.0 35.342385 29.905095
525 1 1 1.3593225 33.983062499999996 28.5457725
526 1 1 4.0779675 36.7017075 28.5457725
527 1 1 4.0779675 33.983062499999996 31.2644175
528 1 1 1.3593225 36.7017075 31.2644175
529 1 1 0.0 32.62374 32.62374
530 1 1 2.718645 35.342385 32.62374
531 1 1 2.718645 32.62374 35.342385
532 1 1 0.0 35.342385 35.342385
533 1 1 1.3593225 33.983062499999996 33.983062499999996
534 1 1 4.0779675 36.7017075 33.983062499999996
535 1 1 4.0779675 33.983062499999996 36.7017075
536 1 1 1.3593225 36.7017075 36.7017075
537 1 1 0.0 32.62374 38.06103
538 1 1 2.718645 35.342385 38.06103
539 1 1 2.718645 32.62374 40.779675000000005
540 1 1 0.0 35.342385 40.779675000000005
541 1 1 1.3593225 33.983062499999996 39.4203525
542 1 1 4.0779675 36.7017075 39.4203525
543 1 1 4.0779675 33.983062499999996 42.1389975
544 1 1 1.3593225 36.7017075 42.1389975
545 1 1 0.0 32.62374 43.49832
546 1 1 2.718645 35.342385 43.49832
547 1 1 2.718645 32.62374 46.216965
548 1 1 0.0 35.342385 46.216965
549 1 1 1.3593225 33.983062499999996 44.8576425
550 1 1 4.0779675 36.7017075 44.8576425
551 1 1 4.0779675 33.983062499999996 47.5762875
552 1 1 1.3593225 36.7017075 47.5762875
553 1 1 0.0 32.62374 48.93561
554 1 1 2.718645 35.342385 48.93561
555 1 1 2.718645 32.62374 51.654255
556 1 1 0.0 35.342385 51.654255
557 1 1 1.3593225 33.983062499999996 50.294932499999994
558 1 1 4.0779675 36.7017075 50.294932499999994
559 1 1 4.0779675 33.983062499999996 53.0135775
560 1 1 1.3593225 36.7017075 53.0135775
561 1 1 0.0 38.06103 0.0
562 1 1 2.718645 40.779675000000005 0.0
563 1 1 2.718645 38.06103 2.718645
564 1 1 0.0 40.779675000000005 2.718645
565 1 1 1.3593225 39.4203525 1.3593225
566 1 1 4.0779675 42.1389975 1.3593225
567 1 1 4.0779675 39.4203525 4.0779675
568 1 1 1.3593225 42.1389975 4.0779675
569 1 1 0.0 38.06103 5.43729
570 1 1 2.718645 40.779675000000005 5.43729
571 1 1 2.718645 38.06103 8.155935
572 1 1 0.0 40.779675000000005 8.155935
573 1 1 1.3593225 39.4203525 6.7966125
574 1 1 4.0779675 42.1389975 6.7966125
575 1 1 4.0779675 39.4203525 9.5152575
576 1 1 1.3593225 42.1389975 9.5152575
577 1 1 0.0 38.06103 10.87458
578 1 1 2.718645 40.779675000000005 10.87458
579 1 1 2.718645 38.06103 13.593225
580 1 1 0.0 40.779675000000005 13.593225
581 1 1 1.3593225 39.4203525 12.2339025
582 1 1 4.0779675 42.1389975 12.2339025
583 1 1 4.0779675 39.4203525 14.9525475
584 1 1 1.3593225 42.1389975 14.9525475
585 1 1 0.0 38.06103 16.31187
586 1 1 2.718645 40.779675000000005 16.31187
587 1 1 2.718645 38.06103 19.030514999999998
588 1 1 0.0 40.779675000000005 19.030514999999998
589 1 1 1.3593225 39.4203525 17.6711925
590 1 1 4.0779675 42.1389975 17.6711925
591 1 1 4.0779675 39.4203525 20.3898375
592 1 1 1.3593225 42.1389975 20.3898375
593 1 1 0.0 38.06103 21.74916
594 1 1 2.718645 40.779675000000005 21.74916
595 1 1 2.718645 38.06103 24.467805
596 1 1 0.0 40.779675000000005 24.467805
597 1 1 1.3593225 39.4203525 23.1084825
598 1 1 4.0779675 42.1389975 23.1084825
599 1 1 4.0779675 39.4203525 25.8271275
600 1 1 1.3593225 42.1389975 25.8271275
601 1 1 0.0 38.06103 27.18645
602 1 1 2.718645 40.779675000000005 27.18645
603 1 1 2.718645 38.06103 29.905095
604 1 1 0.0 40.779675000000005 29.905095
605 1 1 1.3593225 39.4203525 28.5457725
606 1 1 4.0779675 42.1389975 28.5457725
607 1 1 4.0779675 39.4203525 31.2644175
608 1 1 1.3593225 42.1389975 31.2644175
609 1 1 0.0 38.06103 32.62374
610 1 1 2.718645 40.779675000000005 32.62374
611 1 1 2.718645 38.06103 35.342385
612 1 1 0.0 40.779675000000005 35.342385
613 1 1 1.3593225 39.4203525 33.983062499999996
614 1 1 4.0779675 42.1389975 33.983062499999996
615 1 1 4.0779675 39.4203525 36.7017075
616 1 1 1.3593225 42.1389975 36.7017075
617 1 1 0.0 38.06103 38.06103
618 1 1 2.718645 40.779675000000005 38.06103
619 1 1 2.718645 38.06103 40.779675000000005
620 1 1 0.0 40.779675000000005 40.779675000000005
621 1 1 1.3593225 39.4203525 39.4203525
622 1 1 4.0779675 42.1389975 39.4203525
623 1 1 4.0779675 39.4203525 42.1389975
624 1 1 1.3593225 42.1389975 42.1389975
625 1 1 0.0 38.06103 43.49832
626 1 1 2.718645 40.779675000000005 43.49832
627 1 1 2.718645 38.06103 46.216965
628 1 1 0.0 40.779675000000005 46.216965
629 1 1 1.3593225 39.4203525 44.8576425
630 1 1 4.0779675 42.1389975 44.8576425
631 1 1 4.0779675 39.4203525 47.5762875
632 1 1 1.3593225 42.1389975 47.5762875
633 1 1 0.0 38.06103 48.93561
634 1 1 2.718645 40.779675000000005 48.93561
635 1 1 2.718645 38.06103 51.654255
636 1 1 0.0 40.779675000000005 51.654255
637 1 1 1.3593225 39.4203525 50.294932499999994
638 1 1 4.0779675 42.1389975 50.294932499999994
639 1 1 4.0779675 39.4203525 53.0135775
640 1 1 1.3593225 42.1389975 53.0135775
641 1 1 0.0 43.49832 0.0
642 1 1 2.718645 46.216965 0.0
643 1 1 2.718645 43.49832 2.718645
644 1 1 0.0 46.216965 2.718645
645 1 1 1.3593225 44.8576425 1.3593225
646 1 1 4.0779675 47.5762875 1.3593225
647 1 1 4.0779675 44.8576425 4.0779675
648 1 1 1.3593225 47.5762875 4.0779675
649 1 1 0.0 43.49832 5.43729
650 1 1 2.718645 46.216965 5.43729
651 1 1 2.718645 43.49832 8.155935
652 1 1 0.0 46.216965 8.155935
653 1 1 1.3593225 44.8576425 6.7966125
654 1 1 4.0779675 47.5762875 6.7966125
655 1 1 4.0779675 44.8576425 9.5152575
656 1 1 1.3593225 47.5762875 9.5152575
657 1 1 0.0 43.49832 10.87458
658 1 1 2.718645 46.216965 10.87458
659 1 1 2.718645 43.49832 13.593225
660 1 1 0.0 46.216965 13.593225
661 1 1 1.3593225 44.8576425 12.2339025
662 1 1 4.0779675 47.5762875 12.2339025
663 1 1 4.0779675 44.8576425 14.9525475
664 1 1 1.3593225 47.5762875 14.9525475
665 1 1 0.0 43.49832 16.31187
666 1 1 2.718645 46.216965 16.31187
667 1 1 2.718645 43.49832 19.030514999999998
668 1 1 0.0 46.216965 19.030514999999998
669 1 1 1.3593225 44.8576425 17.6711925
670 1 1 4.0779675 47.5762875 17.6711925
671 1 1 4.0779675 44.8576425 20.3898375
672 1 1 1.3593225 47.5762875 20.3898375
673 1 1 0.0 43.49832 21.74916
674 1 1 2.718645 46.216965 21.74916
675 1 1 2.718645 43.49832 24.467805
676 1 1 0.0 46.216965 24.467805
677 1 1 1.3593225 44.8576425 23.1084825
678 1 1 4.0779675 47.5762875 23.1084825
679 1 1 4.0779675 44.8576425 25.8271275
680 1 1 1.3593225 47.5762875 25.8271275
681 1 1 0.0 43.49832 27.18645
682 1 1 2.718645 46.216965 27.18645
683 1 1 2.718645 43.49832 29.905095
684 1 1 0.0 46.216965 29.905095
685 1 1 1.3593225 44.8576425 28.5457725
686 1 1 4.0779675 47.5762875 28.5457725
687 1 1 4.0779675 44.8576425 31.2644175
688 1 1 1.3593225 47.5762875 31.2644175
689 1 1 0.0 43.49832 32.62374
690 1 1 2.718645 46.216965 32.62374
691 1 1 2.718645 43.49832 35.342385
692 1 1 0.0 46.216965 35.342385
693 1 1 1.3593225 44.8576425 33.983062499999996
694 1 1 4.0779675 47.5762875 33.983062499999996
695 1 1 4.0779675 44.8576425 36.7017075
696 1 1 1.3593225 47.5762875 36.7017075
697 1 1 0.0 43.49832 38.06103
698 1 1 2.718645 46.216965 38.06103
699 1 1 2.718645 43.49832 40.779675000000005
700 1 1 0.0 46.216965 40.779675000000005
701 1 1 1.3593225 44.8576425 39.4203525
702 1 1 4.0779675 47.5762875 39.4203525
703 1 1 4.0779675 44.8576425 42.1389975
704 1 1 1.3593225 47.5762875 42.1389975
705 1 1 0.0 43.49832 43.49832
706 1 1 2.718645 46.216965 43.49832
707 1 1 2.718645 43.49832 46.216965
708 1 1 0.0 46.216965 46.216965
709 1 1 1.3593225 44.8576425 44.8576425
710 1 1 4.0779675 47.5762875 44.8576425
711 1 1 4.0779675 44.8576425 47.5762875
712 1 1 1.3593225 47.5762875 47.5762875
713 1 1 0.0 43.49832 48.93561
714 1 1 2.718645 46.216965 48.93561
715 1 1 2.718645 43.49832 51.654255
716 1 1 0.0 46.216965 51.654255
717 1 1 1.3593225 44.8576425 50.294932499999994
718 1 1 4.0779675 47.5762875 50.294932499999994
719 1 1 4.0779675 44.8576425 53.0135775
720 1 1 1.3593225 47.5762875 53.0135775
721 1 1 0.0 48.93561 0.0
722 1 1 2.718645 51.654255 0.0
723 1 1 2.718645 48.93561 2.718645
724 1 1 0.0 51.654255 2.718645
725 1 1 1.3593225 50.294932499999994 1.3593225
726 1 1 4.0779675 53.0135775 1.3593225
727 1 1 4.0779675 50.294932499999994 4.0779675
728 1 1 1.3593225 53.0135775 4.0779675
729 1 1 0.0 48.93561 5.43729
730 1 1 2.718645 51.654255 5.43729
731 1 1 2.718645 48.93561 8.155935
732 1 1 0.0 51.654255 8.155935
733 1 1 1.3593225 50.294932499999994 6.7966125
734 1 1 4.0779675 53.0135775 6.7966125
735 1 1 4.0779675 50.294932499999994 9.5152575
736 1 1 1.3593225 53.0135775 9.5152575
737 1 1 0.0 48.93561 10.87458
738 1 1 2.718645 51.654255 10.87458
739 1 1 2.718645 48.93561 13.593225
740 1 1 0.0 51.654255 13.593225
741 1 1 1.3593225 50.294932499999994 12.2339025
742 1 1 4.0779675 53.0135775 12.2339025
743 1 1 4.0779675 50.294932499999994 14.9525475
744 1 1 1.3593225 53.0135775 14.9525475
745 1 1 0.0 48.93561 16.31187
746 1 1 2.718645 51.654255 16.31187
747 1 1 2.718645 48.93561 19.030514999999998
748 1 1 0.0 51.654255 19.030514999999998
749 1 1 1.3593225 50.294932499999994 17.6711925
750 1 1 4.0779675 53.0135775 17.6711925
751 1 1 4.0779675 50.294932499999994 20.3898375
752 1 1 1.3593225 53.0135775 20.3898375
753 1 1 0.0 48.93561 21.74916
754 1 1 2.718645 51.654255 21.74916
755 1 1 2.718645 48.93561 24.467805
756 1 1 0.0 51.654255 24.467805
757 1 1 1.3593225 50.294932499999994 23.1084825
758 1 1 4.0779675 53.0135775 23.1084825
759 1 1 4.0779675 50.294932499999994 25.8271275
760 1 1 1.3593225 53.0135775 25.8271275
761 1 1 0.0 48.93561 27.18645
762 1 1 2.718645 51.654255 27.18645
763 1 1 2.718645 48.93561 29.905095
764 1 1 0.0 51.654255 29.905095
765 1 1 1.3593225 50.294932499999994 28.5457725
766 1 1 4.0779675 53.0135775 28.5457725
767 1 1 4.0779675 50.294932499999994 31.2644175
768 1 1 1.3593225 53.0135775 31.2644175
769 1 1 0.0 48.93561 32.62374
770 1 1 2.718645 51.654255 32.62374
771 1 1 2.718645 48.93561 35.342385
772 1 1 0.0 51.654255 35.342385
773 1 1 1.3593225 50.294932499999994 33.983062499999996
774 1 1 4.0779675 53.0135775 33.983062499999996
775 1 1 4.0779675 50.294932499999994 36.7017075
776 1 1 1.3593225 53.0135775 36.7017075
777 1 1 0.0 48.93561 38.06103
778 1 1 2.718645 51.654255 38.06103
779 1 1 2.718645 48.93561 40.779675000000005
780 1 1 0.0 51.654255 40.779675000000005
781 1 1 1.3593225 50.294932499999994 39.4203525
782 1 1 4.0779675 53.0135775 39.4203525
783 1 1 4.0779675 50.294932499999994 42.1389975
784 1 1 1.3593225 53.0135775 42.1389975
785 1 1 0.0 48.93561 43.49832
786 1 1 2.718645 51.654255 43.49832
787 1 1 2.718645 48.93561 46.216965
788 1 1 0.0 51.654255 46.216965
789 1 1 1.3593225 50.294932499999994 44.8576425
790 1 1 4.0779675 53.0135775 44.8576425
791 1 1 4.0779675 50.294932499999994 47.5762875